<?xml version="1.0" encoding="UTF-8"?>

<!-- generated on qui 26 out 2017 12:47:17 -03 by SUMO gui Version 0.28.0
<?xml version="1.0" encoding="UTF-8"?>

<configuration xmlns:xsi="http://www.w3.org/2001/XMLSchema-instance" xsi:noNamespaceSchemaLocation="http://sumo.dlr.de/xsd/sumo-gui.exeConfiguration.xsd">

    <input>
        <net-file value="/home/gustavo/Área%20de%20Trabalho/GitHub/SUMO/acosta/acosta_buslanes.net.xml"/>
        <route-files value="/home/gustavo/Área%20de%20Trabalho/GitHub/SUMO/acosta/acosta.rou.xml,/home/gustavo/Área%20de%20Trabalho/GitHub/SUMO/acosta/acosta_busses.rou.xml"/>
        <additional-files value="/home/gustavo/Área%20de%20Trabalho/GitHub/SUMO/acosta/acosta_vtypes.add.xml,/home/gustavo/Área%20de%20Trabalho/GitHub/SUMO/acosta/acosta_detectors.add.xml,/home/gustavo/Área%20de%20Trabalho/GitHub/SUMO/acosta/acosta_bus_stops.add.xml,/home/gustavo/Área%20de%20Trabalho/GitHub/SUMO/acosta/acosta_tls.add.xml"/>
    </input>

    <output>
        <tripinfo-output value="/home/gustavo/Área%20de%20Trabalho/GitHub/SUMO/acosta/tripinfos.xml"/>
    </output>

    <report>
        <log value="/home/gustavo/Área%20de%20Trabalho/GitHub/SUMO/acosta/sumo_log.txt"/>
        <no-step-log value="true"/>
    </report>

    <gui_only>
        <gui-settings-file value="/home/gustavo/Área%20de%20Trabalho/GitHub/SUMO/acosta/settings.gui.xml"/>
    </gui_only>

</configuration>
-->

<tripinfos xmlns:xsi="http://www.w3.org/2001/XMLSchema-instance" xsi:noNamespaceSchemaLocation="http://sumo.dlr.de/xsd/tripinfo_file.xsd">
    <tripinfo id="Pepoli_8_16" depart="27.00" departLane="210_0" departPos="0.00" departSpeed="0.00" departDelay="0.00" arrival="84.00" arrivalLane="134b_0" arrivalPos="158.70" arrivalSpeed="13.28" duration="57.00" routeLength="693.93" waitSteps="0" timeLoss="6.18" rerouteNo="0" devices="tripinfo_Pepoli_8_16" vType="passenger2b" vaporized=""/>
    <tripinfo id="Silvani_11_0" depart="0.00" departLane="203[0]_0" departPos="0.00" departSpeed="0.00" departDelay="0.00" arrival="87.00" arrivalLane="114_0" arrivalPos="693.37" arrivalSpeed="13.46" duration="87.00" routeLength="1114.20" waitSteps="0" timeLoss="6.72" rerouteNo="0" devices="tripinfo_Silvani_11_0" vType="passenger2a" vaporized=""/>
    <tripinfo id="Pepoli_8_21" depart="38.00" departLane="210_0" departPos="0.00" departSpeed="0.00" departDelay="2.00" arrival="96.00" arrivalLane="134b_0" arrivalPos="158.70" arrivalSpeed="13.31" duration="58.00" routeLength="693.93" waitSteps="0" timeLoss="7.67" rerouteNo="0" devices="tripinfo_Pepoli_8_21" vType="passenger2b" vaporized=""/>
    <tripinfo id="Pepoli_8_23" depart="41.00" departLane="210_0" departPos="0.00" departSpeed="0.00" departDelay="2.00" arrival="100.00" arrivalLane="134b_0" arrivalPos="158.70" arrivalSpeed="13.56" duration="59.00" routeLength="693.93" waitSteps="0" timeLoss="8.26" rerouteNo="0" devices="tripinfo_Pepoli_8_23" vType="passenger2a" vaporized=""/>
    <tripinfo id="Togliatti_2_8" depart="11.00" departLane="85_0" departPos="0.00" departSpeed="0.00" departDelay="0.00" arrival="104.00" arrivalLane="77[1][1]_0" arrivalPos="464.92" arrivalSpeed="13.68" duration="93.00" routeLength="1149.15" waitSteps="0" timeLoss="9.29" rerouteNo="0" devices="tripinfo_Togliatti_2_8" vType="passenger1" vaporized=""/>
    <tripinfo id="Costa_1_4" depart="15.00" departLane="78[0]_0" departPos="0.00" departSpeed="0.00" departDelay="5.00" arrival="111.00" arrivalLane="86_1" arrivalPos="323.60" arrivalSpeed="13.41" duration="96.00" routeLength="1167.42" waitSteps="0" timeLoss="10.04" rerouteNo="0" devices="tripinfo_Costa_1_4" vType="passenger3" vaporized=""/>
    <tripinfo id="Costa_1_2" depart="9.00" departLane="78[0]_0" departPos="0.00" departSpeed="0.00" departDelay="4.00" arrival="113.00" arrivalLane="86_0" arrivalPos="323.60" arrivalSpeed="13.62" duration="104.00" routeLength="1167.42" waitSteps="1" timeLoss="17.72" rerouteNo="0" devices="tripinfo_Costa_1_2" vType="passenger1" vaporized=""/>
    <tripinfo id="Costa_12_0" depart="0.00" departLane="78[0]_0" departPos="0.00" departSpeed="0.00" departDelay="0.00" arrival="116.00" arrivalLane="136_0" arrivalPos="188.65" arrivalSpeed="13.32" duration="116.00" routeLength="1413.22" waitSteps="0" timeLoss="13.00" rerouteNo="0" devices="tripinfo_Costa_12_0" vType="passenger3" vaporized=""/>
    <tripinfo id="Costa_12_1" depart="6.00" departLane="78[0]_0" departPos="0.00" departSpeed="0.00" departDelay="4.00" arrival="121.00" arrivalLane="136_0" arrivalPos="188.65" arrivalSpeed="13.78" duration="115.00" routeLength="1413.22" waitSteps="0" timeLoss="12.15" rerouteNo="0" devices="tripinfo_Costa_12_1" vType="passenger1" vaporized=""/>
    <tripinfo id="Audinot_7_0" depart="0.00" departLane="131_0" departPos="0.00" departSpeed="0.00" departDelay="0.00" arrival="123.00" arrivalLane="209_0" arrivalPos="395.74" arrivalSpeed="13.71" duration="123.00" routeLength="875.20" waitSteps="45" timeLoss="59.50" rerouteNo="0" devices="tripinfo_Audinot_7_0" vType="passenger4" vaporized=""/>
    <tripinfo id="Costa_3_21" depart="56.00" departLane="78[0]_0" departPos="0.00" departSpeed="0.00" departDelay="2.00" arrival="126.00" arrivalLane="14_0" arrivalPos="90.27" arrivalSpeed="12.86" duration="70.00" routeLength="853.79" waitSteps="0" timeLoss="7.61" rerouteNo="0" devices="tripinfo_Costa_3_21" vType="passenger3" vaporized=""/>
    <tripinfo id="Costa_12_3" depart="12.00" departLane="78[0]_0" departPos="0.00" departSpeed="0.00" departDelay="5.00" arrival="128.00" arrivalLane="136_0" arrivalPos="188.65" arrivalSpeed="13.39" duration="116.00" routeLength="1413.22" waitSteps="0" timeLoss="13.59" rerouteNo="0" devices="tripinfo_Costa_12_3" vType="passenger1" vaporized=""/>
    <tripinfo id="Costa_12_7" depart="20.00" departLane="78[0]_0" departPos="0.00" departSpeed="0.00" departDelay="2.00" arrival="137.00" arrivalLane="136_0" arrivalPos="188.65" arrivalSpeed="13.02" duration="117.00" routeLength="1413.22" waitSteps="0" timeLoss="14.19" rerouteNo="0" devices="tripinfo_Costa_12_7" vType="passenger1" vaporized=""/>
    <tripinfo id="Costa_12_9" depart="25.00" departLane="78[0]_0" departPos="0.00" departSpeed="0.00" departDelay="2.00" arrival="140.00" arrivalLane="136_0" arrivalPos="188.65" arrivalSpeed="12.86" duration="115.00" routeLength="1413.22" waitSteps="0" timeLoss="12.31" rerouteNo="0" devices="tripinfo_Costa_12_9" vType="passenger4" vaporized=""/>
    <tripinfo id="Costa_12_11" depart="29.00" departLane="78[0]_0" departPos="0.00" departSpeed="0.00" departDelay="1.00" arrival="146.00" arrivalLane="136_0" arrivalPos="188.65" arrivalSpeed="13.05" duration="117.00" routeLength="1413.22" waitSteps="0" timeLoss="14.80" rerouteNo="0" devices="tripinfo_Costa_12_11" vType="passenger1" vaporized=""/>
    <tripinfo id="Turati_3_2" depart="69.00" departLane="195_0" departPos="0.00" departSpeed="0.00" departDelay="0.00" arrival="148.00" arrivalLane="14_0" arrivalPos="90.27" arrivalSpeed="13.61" duration="79.00" routeLength="946.95" waitSteps="0" timeLoss="9.58" rerouteNo="0" devices="tripinfo_Turati_3_2" vType="ignoring5" vaporized=""/>
    <tripinfo id="Pepoli_8_25" depart="44.00" departLane="210_0" departPos="0.00" departSpeed="0.00" departDelay="2.00" arrival="152.00" arrivalLane="134b_0" arrivalPos="158.70" arrivalSpeed="13.06" duration="108.00" routeLength="693.93" waitSteps="43" timeLoss="57.43" rerouteNo="0" devices="tripinfo_Pepoli_8_25" vType="passenger4" vaporized=""/>
    <tripinfo id="Togliatti_12_15" depart="22.00" departLane="85_2" departPos="0.00" departSpeed="0.00" departDelay="1.00" arrival="153.00" arrivalLane="136_0" arrivalPos="188.65" arrivalSpeed="13.88" duration="131.00" routeLength="888.54" waitSteps="51" timeLoss="64.81" rerouteNo="0" devices="tripinfo_Togliatti_12_15" vType="passenger2b" vaporized=""/>
    <tripinfo id="Pepoli_8_28" depart="48.00" departLane="210_0" departPos="0.00" departSpeed="0.00" departDelay="0.00" arrival="154.00" arrivalLane="134b_0" arrivalPos="158.70" arrivalSpeed="13.28" duration="106.00" routeLength="693.93" waitSteps="42" timeLoss="55.12" rerouteNo="0" devices="tripinfo_Pepoli_8_28" vType="passenger2b" vaporized=""/>
    <tripinfo id="Pepoli_3_0" depart="0.00" departLane="210_2" departPos="0.00" departSpeed="0.00" departDelay="0.00" arrival="154.00" arrivalLane="14_0" arrivalPos="90.27" arrivalSpeed="13.77" duration="154.00" routeLength="1934.45" waitSteps="0" timeLoss="12.77" rerouteNo="0" devices="tripinfo_Pepoli_3_0" vType="ignoring1" vaporized=""/>
    <tripinfo id="Silvani_11_1" depart="2.00" departLane="203[0]_0" departPos="0.00" departSpeed="0.00" departDelay="0.00" arrival="156.00" arrivalLane="114_0" arrivalPos="693.37" arrivalSpeed="12.63" duration="154.00" routeLength="1114.20" waitSteps="62" timeLoss="73.63" rerouteNo="0" devices="tripinfo_Silvani_11_1" vType="passenger2b" vaporized=""/>
    <tripinfo id="Pepoli_3_2" depart="3.00" departLane="210_2" departPos="0.00" departSpeed="0.00" departDelay="0.00" arrival="157.00" arrivalLane="14_0" arrivalPos="90.27" arrivalSpeed="13.74" duration="154.00" routeLength="1934.45" waitSteps="0" timeLoss="12.68" rerouteNo="0" devices="tripinfo_Pepoli_3_2" vType="ignoring1" vaporized=""/>
    <tripinfo id="Togliatti_12_24" depart="37.00" departLane="85_2" departPos="0.00" departSpeed="0.00" departDelay="3.00" arrival="158.00" arrivalLane="136_0" arrivalPos="188.65" arrivalSpeed="13.12" duration="121.00" routeLength="888.54" waitSteps="38" timeLoss="54.39" rerouteNo="0" devices="tripinfo_Togliatti_12_24" vType="passenger3" vaporized=""/>
    <tripinfo id="Silvani_11_8" depart="18.00" departLane="203[0]_0" departPos="0.00" departSpeed="0.00" departDelay="0.00" arrival="160.00" arrivalLane="114_0" arrivalPos="693.37" arrivalSpeed="13.34" duration="142.00" routeLength="1114.20" waitSteps="48" timeLoss="61.65" rerouteNo="0" devices="tripinfo_Silvani_11_8" vType="passenger1" vaporized=""/>
    <tripinfo id="Togliatti_12_48" depart="70.00" departLane="85_2" departPos="0.00" departSpeed="0.00" departDelay="2.00" arrival="160.00" arrivalLane="136_0" arrivalPos="188.65" arrivalSpeed="12.76" duration="90.00" routeLength="888.54" waitSteps="7" timeLoss="23.67" rerouteNo="0" devices="tripinfo_Togliatti_12_48" vType="passenger2a" vaporized=""/>
    <tripinfo id="bus_81_0" depart="4.00" departLane="55_0" departPos="0.00" departSpeed="0.00" departDelay="4.00" arrival="162.00" arrivalLane="114_0" arrivalPos="693.37" arrivalSpeed="13.00" duration="158.00" routeLength="1058.61" waitSteps="17" timeLoss="39.52" rerouteNo="0" devices="tripinfo_bus_81_0" vType="bus" vaporized=""/>
    <tripinfo id="Togliatti_12_59" depart="87.00" departLane="85_2" departPos="0.00" departSpeed="0.00" departDelay="3.00" arrival="162.00" arrivalLane="136_0" arrivalPos="188.65" arrivalSpeed="13.15" duration="75.00" routeLength="888.54" waitSteps="0" timeLoss="9.02" rerouteNo="0" devices="tripinfo_Togliatti_12_59" vType="passenger2b" vaporized=""/>
    <tripinfo id="Pepoli_8_44" depart="81.00" departLane="210_0" departPos="0.00" departSpeed="0.00" departDelay="6.00" arrival="162.00" arrivalLane="134b_0" arrivalPos="158.70" arrivalSpeed="13.59" duration="81.00" routeLength="693.93" waitSteps="16" timeLoss="30.35" rerouteNo="0" devices="tripinfo_Pepoli_8_44" vType="passenger3" vaporized=""/>
    <tripinfo id="Silvani_11_9" depart="21.00" departLane="203[0]_0" departPos="0.00" departSpeed="0.00" departDelay="0.00" arrival="163.00" arrivalLane="114_1" arrivalPos="693.37" arrivalSpeed="13.45" duration="142.00" routeLength="1114.20" waitSteps="48" timeLoss="60.76" rerouteNo="0" devices="tripinfo_Silvani_11_9" vType="passenger3" vaporized=""/>
    <tripinfo id="Pepoli_10_4" depart="6.00" departLane="210_0" departPos="0.00" departSpeed="0.00" departDelay="0.00" arrival="164.00" arrivalLane="204[1][1]_0" arrivalPos="436.47" arrivalSpeed="13.32" duration="158.00" routeLength="1470.69" waitSteps="35" timeLoss="51.74" rerouteNo="0" devices="tripinfo_Pepoli_10_4" vType="passenger4" vaporized=""/>
    <tripinfo id="Pepoli_8_48" depart="83.00" departLane="210_0" departPos="0.00" departSpeed="0.00" departDelay="1.00" arrival="164.00" arrivalLane="134b_0" arrivalPos="158.70" arrivalSpeed="12.69" duration="81.00" routeLength="693.93" waitSteps="15" timeLoss="30.42" rerouteNo="0" devices="tripinfo_Pepoli_8_48" vType="passenger3" vaporized=""/>
    <tripinfo id="Silvani_11_12" depart="28.00" departLane="203[0]_0" departPos="0.00" departSpeed="0.00" departDelay="0.00" arrival="165.00" arrivalLane="114_1" arrivalPos="693.37" arrivalSpeed="13.71" duration="137.00" routeLength="1114.20" waitSteps="42" timeLoss="55.83" rerouteNo="0" devices="tripinfo_Silvani_11_12" vType="passenger2b" vaporized=""/>
    <tripinfo id="Pepoli_10_10" depart="19.00" departLane="210_0" departPos="0.00" departSpeed="0.00" departDelay="2.00" arrival="166.00" arrivalLane="204[1][1]_0" arrivalPos="436.47" arrivalSpeed="12.92" duration="147.00" routeLength="1470.69" waitSteps="24" timeLoss="40.38" rerouteNo="0" devices="tripinfo_Pepoli_10_10" vType="passenger1" vaporized=""/>
    <tripinfo id="Pepoli_8_51" depart="87.00" departLane="210_0" departPos="0.00" departSpeed="0.00" departDelay="0.00" arrival="166.00" arrivalLane="134b_0" arrivalPos="158.70" arrivalSpeed="13.04" duration="79.00" routeLength="693.93" waitSteps="13" timeLoss="28.58" rerouteNo="0" devices="tripinfo_Pepoli_8_51" vType="passenger3" vaporized=""/>
    <tripinfo id="Silvani_11_13" depart="30.00" departLane="203[0]_0" departPos="0.00" departSpeed="0.00" departDelay="0.00" arrival="167.00" arrivalLane="114_0" arrivalPos="693.37" arrivalSpeed="13.74" duration="137.00" routeLength="1114.20" waitSteps="40" timeLoss="55.77" rerouteNo="0" devices="tripinfo_Silvani_11_13" vType="passenger1" vaporized=""/>
    <tripinfo id="Pepoli_10_11" depart="22.00" departLane="210_0" departPos="0.00" departSpeed="0.00" departDelay="4.00" arrival="168.00" arrivalLane="204[1][1]_0" arrivalPos="436.47" arrivalSpeed="13.57" duration="146.00" routeLength="1470.69" waitSteps="22" timeLoss="39.19" rerouteNo="0" devices="tripinfo_Pepoli_10_11" vType="passenger1" vaporized=""/>
    <tripinfo id="Silvani_11_14" depart="33.00" departLane="203[0]_0" departPos="0.00" departSpeed="0.00" departDelay="0.00" arrival="168.00" arrivalLane="114_0" arrivalPos="693.37" arrivalSpeed="13.57" duration="135.00" routeLength="1114.20" waitSteps="39" timeLoss="54.63" rerouteNo="0" devices="tripinfo_Silvani_11_14" vType="passenger1" vaporized=""/>
    <tripinfo id="Pepoli_10_18" depart="32.00" departLane="210_1" departPos="0.00" departSpeed="0.00" departDelay="2.00" arrival="169.00" arrivalLane="204[1][1]_0" arrivalPos="436.47" arrivalSpeed="13.87" duration="137.00" routeLength="1470.69" waitSteps="15" timeLoss="30.86" rerouteNo="0" devices="tripinfo_Pepoli_10_18" vType="passenger1" vaporized=""/>
    <tripinfo id="Vittorio_Veneto_1_4" depart="18.00" departLane="224[0]_0" departPos="0.00" departSpeed="0.00" departDelay="0.00" arrival="170.00" arrivalLane="86_0" arrivalPos="323.60" arrivalSpeed="13.68" duration="152.00" routeLength="1167.08" waitSteps="53" timeLoss="66.93" rerouteNo="0" devices="tripinfo_Vittorio_Veneto_1_4" vType="passenger1" vaporized=""/>
    <tripinfo id="XXI_Aprile_2_12" depart="42.00" departLane="13_0" departPos="0.00" departSpeed="0.00" departDelay="0.00" arrival="170.00" arrivalLane="77[1][1]_0" arrivalPos="464.92" arrivalSpeed="12.95" duration="128.00" routeLength="979.71" waitSteps="37" timeLoss="56.48" rerouteNo="0" devices="tripinfo_XXI_Aprile_2_12" vType="passenger3" vaporized=""/>
    <tripinfo id="Pepoli_10_19" depart="35.00" departLane="210_1" departPos="0.00" departSpeed="0.00" departDelay="3.00" arrival="171.00" arrivalLane="204[1][1]_0" arrivalPos="436.47" arrivalSpeed="12.96" duration="136.00" routeLength="1470.69" waitSteps="13" timeLoss="29.77" rerouteNo="0" devices="tripinfo_Pepoli_10_19" vType="passenger2b" vaporized=""/>
    <tripinfo id="bus_91_0" depart="8.00" departLane="55_0" departPos="0.00" departSpeed="0.00" departDelay="8.00" arrival="171.00" arrivalLane="114_0" arrivalPos="693.37" arrivalSpeed="13.37" duration="163.00" routeLength="1058.61" waitSteps="20" timeLoss="44.69" rerouteNo="0" devices="tripinfo_bus_91_0" vType="bus" vaporized=""/>
    <tripinfo id="Pepoli_10_20" depart="36.00" departLane="210_0" departPos="0.00" departSpeed="0.00" departDelay="2.00" arrival="172.00" arrivalLane="204[1][1]_1" arrivalPos="436.47" arrivalSpeed="12.83" duration="136.00" routeLength="1470.69" waitSteps="9" timeLoss="29.52" rerouteNo="0" devices="tripinfo_Pepoli_10_20" vType="passenger1" vaporized=""/>
    <tripinfo id="Silvani_11_17" depart="40.00" departLane="203[0]_0" departPos="0.00" departSpeed="0.00" departDelay="0.00" arrival="172.00" arrivalLane="114_1" arrivalPos="693.37" arrivalSpeed="13.67" duration="132.00" routeLength="1114.20" waitSteps="34" timeLoss="50.81" rerouteNo="0" devices="tripinfo_Silvani_11_17" vType="passenger1" vaporized=""/>
    <tripinfo id="Pepoli_8_62" depart="113.00" departLane="210_0" departPos="0.00" departSpeed="0.00" departDelay="7.00" arrival="172.00" arrivalLane="134b_0" arrivalPos="158.70" arrivalSpeed="12.77" duration="59.00" routeLength="693.93" waitSteps="0" timeLoss="8.48" rerouteNo="0" devices="tripinfo_Pepoli_8_62" vType="passenger1" vaporized=""/>
    <tripinfo id="Silvani_11_23" depart="54.00" departLane="203[0]_0" departPos="0.00" departSpeed="0.00" departDelay="0.00" arrival="173.00" arrivalLane="114_2" arrivalPos="693.37" arrivalSpeed="13.35" duration="119.00" routeLength="1114.20" waitSteps="21" timeLoss="38.24" rerouteNo="0" devices="tripinfo_Silvani_11_23" vType="passenger4" vaporized=""/>
    <tripinfo id="Pepoli_10_22" depart="38.00" departLane="210_1" departPos="0.00" departSpeed="0.00" departDelay="1.00" arrival="173.00" arrivalLane="204[1][1]_0" arrivalPos="436.47" arrivalSpeed="12.73" duration="135.00" routeLength="1470.69" waitSteps="10" timeLoss="28.84" rerouteNo="0" devices="tripinfo_Pepoli_10_22" vType="passenger2a" vaporized=""/>
    <tripinfo id="Turati_10_0" depart="0.00" departLane="195_0" departPos="0.00" departSpeed="0.00" departDelay="0.00" arrival="174.00" arrivalLane="204[1][1]_1" arrivalPos="436.47" arrivalSpeed="13.38" duration="174.00" routeLength="2012.00" waitSteps="1" timeLoss="25.74" rerouteNo="0" devices="tripinfo_Turati_10_0" vType="passenger1" vaporized=""/>
    <tripinfo id="bus_13_0" depart="0.00" departLane="55_0" departPos="0.00" departSpeed="0.00" departDelay="0.00" arrival="174.00" arrivalLane="114_0" arrivalPos="693.37" arrivalSpeed="13.60" duration="174.00" routeLength="1058.61" waitSteps="23" timeLoss="55.58" rerouteNo="0" devices="tripinfo_bus_13_0" vType="bus" vaporized=""/>
    <tripinfo id="Togliatti_71_0" depart="0.00" departLane="85_1" departPos="0.00" departSpeed="0.00" departDelay="0.00" arrival="176.00" arrivalLane="209_0" arrivalPos="395.74" arrivalSpeed="13.35" duration="176.00" routeLength="2033.15" waitSteps="13" timeLoss="28.71" rerouteNo="0" devices="tripinfo_Togliatti_71_0" vType="passenger2b" vaporized=""/>
    <tripinfo id="Audinot_10_2" depart="42.00" departLane="131_0" departPos="0.00" departSpeed="0.00" departDelay="0.00" arrival="176.00" arrivalLane="204[1][1]_0" arrivalPos="436.47" arrivalSpeed="13.51" duration="134.00" routeLength="1625.34" waitSteps="0" timeLoss="13.89" rerouteNo="0" devices="tripinfo_Audinot_10_2" vType="passenger2b" vaporized=""/>
    <tripinfo id="Silvani_11_16" depart="37.00" departLane="203[0]_0" departPos="0.00" departSpeed="0.00" departDelay="0.00" arrival="176.00" arrivalLane="114_1" arrivalPos="693.37" arrivalSpeed="12.64" duration="139.00" routeLength="1114.20" waitSteps="37" timeLoss="58.44" rerouteNo="0" devices="tripinfo_Silvani_11_16" vType="passenger2a" vaporized=""/>
    <tripinfo id="Silvani_11_27" depart="63.00" departLane="203[0]_0" departPos="0.00" departSpeed="0.00" departDelay="0.00" arrival="177.00" arrivalLane="114_2" arrivalPos="693.37" arrivalSpeed="13.62" duration="114.00" routeLength="1114.20" waitSteps="18" timeLoss="33.08" rerouteNo="0" devices="tripinfo_Silvani_11_27" vType="passenger1" vaporized=""/>
    <tripinfo id="Silvani_11_24" depart="57.00" departLane="203[0]_0" departPos="0.00" departSpeed="0.00" departDelay="1.00" arrival="177.00" arrivalLane="114_0" arrivalPos="693.37" arrivalSpeed="13.87" duration="120.00" routeLength="1114.20" waitSteps="21" timeLoss="38.82" rerouteNo="0" devices="tripinfo_Silvani_11_24" vType="passenger1" vaporized=""/>
    <tripinfo id="Silvani_11_32" depart="75.00" departLane="203[0]_0" departPos="0.00" departSpeed="0.00" departDelay="0.00" arrival="178.00" arrivalLane="114_1" arrivalPos="693.37" arrivalSpeed="13.26" duration="103.00" routeLength="1114.20" waitSteps="6" timeLoss="22.70" rerouteNo="0" devices="tripinfo_Silvani_11_32" vType="passenger1" vaporized=""/>
    <tripinfo id="Costa_3_33" depart="88.00" departLane="78[0]_0" departPos="0.00" departSpeed="0.00" departDelay="2.00" arrival="178.00" arrivalLane="14_0" arrivalPos="90.27" arrivalSpeed="13.81" duration="90.00" routeLength="853.79" waitSteps="15" timeLoss="27.67" rerouteNo="0" devices="tripinfo_Costa_3_33" vType="passenger2b" vaporized=""/>
    <tripinfo id="Togliatti_2_32" depart="54.00" departLane="85_0" departPos="0.00" departSpeed="0.00" departDelay="9.00" arrival="179.00" arrivalLane="77[1][1]_0" arrivalPos="464.92" arrivalSpeed="13.38" duration="125.00" routeLength="1149.15" waitSteps="25" timeLoss="41.28" rerouteNo="0" devices="tripinfo_Togliatti_2_32" vType="passenger5" vaporized=""/>
    <tripinfo id="Togliatti_3_18" depart="25.00" departLane="85_0" departPos="0.00" departSpeed="0.00" departDelay="0.00" arrival="179.00" arrivalLane="14_0" arrivalPos="90.27" arrivalSpeed="13.61" duration="154.00" routeLength="1114.31" waitSteps="56" timeLoss="73.67" rerouteNo="0" devices="tripinfo_Togliatti_3_18" vType="passenger1" vaporized=""/>
    <tripinfo id="Silvani_7_4" depart="9.00" departLane="203[0]_0" departPos="0.00" departSpeed="0.00" departDelay="0.00" arrival="180.00" arrivalLane="209_0" arrivalPos="395.74" arrivalSpeed="13.09" duration="171.00" routeLength="1449.64" waitSteps="52" timeLoss="65.94" rerouteNo="0" devices="tripinfo_Silvani_7_4" vType="passenger2b" vaporized=""/>
    <tripinfo id="Silvani_11_33" depart="78.00" departLane="203[0]_0" departPos="0.00" departSpeed="0.00" departDelay="1.00" arrival="180.00" arrivalLane="114_0" arrivalPos="693.37" arrivalSpeed="13.17" duration="102.00" routeLength="1114.20" waitSteps="5" timeLoss="21.02" rerouteNo="0" devices="tripinfo_Silvani_11_33" vType="passenger1" vaporized=""/>
    <tripinfo id="Costa_3_38" depart="103.00" departLane="78[0]_0" departPos="0.00" departSpeed="0.00" departDelay="4.00" arrival="181.00" arrivalLane="14_0" arrivalPos="90.27" arrivalSpeed="12.66" duration="78.00" routeLength="853.79" waitSteps="3" timeLoss="16.40" rerouteNo="0" devices="tripinfo_Costa_3_38" vType="passenger1" vaporized=""/>
    <tripinfo id="Silvani_7_2" depart="4.00" departLane="203[0]_1" departPos="0.00" departSpeed="0.00" departDelay="0.00" arrival="182.00" arrivalLane="209_0" arrivalPos="395.74" arrivalSpeed="12.58" duration="178.00" routeLength="1449.64" waitSteps="59" timeLoss="72.57" rerouteNo="0" devices="tripinfo_Silvani_7_2" vType="passenger2a" vaporized=""/>
    <tripinfo id="Silvani_11_34" depart="81.00" departLane="203[0]_0" departPos="0.00" departSpeed="0.00" departDelay="1.00" arrival="182.00" arrivalLane="114_1" arrivalPos="693.37" arrivalSpeed="13.30" duration="101.00" routeLength="1114.20" waitSteps="3" timeLoss="19.91" rerouteNo="0" devices="tripinfo_Silvani_11_34" vType="passenger4" vaporized=""/>
    <tripinfo id="Silvani_7_5" depart="11.00" departLane="203[0]_1" departPos="0.00" departSpeed="0.00" departDelay="0.00" arrival="183.00" arrivalLane="209_1" arrivalPos="395.74" arrivalSpeed="13.03" duration="172.00" routeLength="1449.64" waitSteps="51" timeLoss="66.37" rerouteNo="0" devices="tripinfo_Silvani_7_5" vType="passenger2b" vaporized=""/>
    <tripinfo id="Silvani_11_39" depart="92.00" departLane="203[0]_0" departPos="0.00" departSpeed="0.00" departDelay="0.00" arrival="183.00" arrivalLane="114_0" arrivalPos="693.37" arrivalSpeed="13.19" duration="91.00" routeLength="1114.20" waitSteps="0" timeLoss="10.53" rerouteNo="0" devices="tripinfo_Silvani_11_39" vType="passenger5" vaporized=""/>
    <tripinfo id="Togliatti_3_31" depart="51.00" departLane="85_0" departPos="0.00" departSpeed="0.00" departDelay="7.00" arrival="183.00" arrivalLane="14_0" arrivalPos="90.27" arrivalSpeed="13.06" duration="132.00" routeLength="1114.31" waitSteps="30" timeLoss="51.16" rerouteNo="0" devices="tripinfo_Togliatti_3_31" vType="passenger2b" vaporized=""/>
    <tripinfo id="Silvani_7_7" depart="16.00" departLane="203[0]_1" departPos="0.00" departSpeed="0.00" departDelay="0.00" arrival="184.00" arrivalLane="209_2" arrivalPos="395.74" arrivalSpeed="13.65" duration="168.00" routeLength="1449.64" waitSteps="45" timeLoss="62.94" rerouteNo="0" devices="tripinfo_Silvani_7_7" vType="passenger1" vaporized=""/>
    <tripinfo id="Silvani_7_3" depart="7.00" departLane="203[0]_1" departPos="0.00" departSpeed="0.00" departDelay="0.00" arrival="184.00" arrivalLane="209_0" arrivalPos="395.74" arrivalSpeed="12.52" duration="177.00" routeLength="1449.64" waitSteps="57" timeLoss="71.19" rerouteNo="0" devices="tripinfo_Silvani_7_3" vType="passenger2b" vaporized=""/>
    <tripinfo id="Pepoli_11_5" depart="8.00" departLane="210_1" departPos="0.00" departSpeed="0.00" departDelay="0.00" arrival="185.00" arrivalLane="114_2" arrivalPos="693.37" arrivalSpeed="13.75" duration="177.00" routeLength="1737.41" waitSteps="33" timeLoss="50.93" rerouteNo="0" devices="tripinfo_Pepoli_11_5" vType="passenger2a" vaporized=""/>
    <tripinfo id="Pepoli_11_3" depart="5.00" departLane="210_1" departPos="0.00" departSpeed="0.00" departDelay="0.00" arrival="185.00" arrivalLane="114_1" arrivalPos="693.37" arrivalSpeed="12.87" duration="180.00" routeLength="1737.41" waitSteps="37" timeLoss="54.64" rerouteNo="0" devices="tripinfo_Pepoli_11_3" vType="passenger1" vaporized=""/>
    <tripinfo id="Silvani_11_41" depart="96.00" departLane="203[0]_0" departPos="0.00" departSpeed="0.00" departDelay="0.00" arrival="185.00" arrivalLane="114_0" arrivalPos="693.37" arrivalSpeed="12.97" duration="89.00" routeLength="1114.20" waitSteps="0" timeLoss="8.56" rerouteNo="0" devices="tripinfo_Silvani_11_41" vType="passenger1" vaporized=""/>
    <tripinfo id="Togliatti_3_39" depart="62.00" departLane="85_0" departPos="0.00" departSpeed="0.00" departDelay="7.00" arrival="185.00" arrivalLane="14_0" arrivalPos="90.27" arrivalSpeed="13.59" duration="123.00" routeLength="1114.31" waitSteps="21" timeLoss="41.74" rerouteNo="0" devices="tripinfo_Togliatti_3_39" vType="passenger2b" vaporized=""/>
    <tripinfo id="Pepoli_8_70" depart="127.00" departLane="210_0" departPos="0.00" departSpeed="0.00" departDelay="7.00" arrival="185.00" arrivalLane="134b_0" arrivalPos="158.70" arrivalSpeed="13.36" duration="58.00" routeLength="693.93" waitSteps="0" timeLoss="7.76" rerouteNo="0" devices="tripinfo_Pepoli_8_70" vType="passenger2a" vaporized=""/>
    <tripinfo id="Silvani_7_11" depart="26.00" departLane="203[0]_1" departPos="0.00" departSpeed="0.00" departDelay="1.00" arrival="186.00" arrivalLane="209_1" arrivalPos="395.74" arrivalSpeed="13.67" duration="160.00" routeLength="1449.64" waitSteps="38" timeLoss="54.55" rerouteNo="0" devices="tripinfo_Silvani_7_11" vType="passenger4" vaporized=""/>
    <tripinfo id="Silvani_7_15" depart="35.00" departLane="203[0]_1" departPos="0.00" departSpeed="0.00" departDelay="0.00" arrival="186.00" arrivalLane="209_0" arrivalPos="395.74" arrivalSpeed="13.77" duration="151.00" routeLength="1449.64" waitSteps="32" timeLoss="45.99" rerouteNo="0" devices="tripinfo_Silvani_7_15" vType="passenger1" vaporized=""/>
    <tripinfo id="Togliatti_2_40" depart="64.00" departLane="85_0" departPos="0.00" departSpeed="0.00" departDelay="8.00" arrival="186.00" arrivalLane="77[1][1]_0" arrivalPos="464.92" arrivalSpeed="12.97" duration="122.00" routeLength="1149.15" waitSteps="20" timeLoss="38.44" rerouteNo="0" devices="tripinfo_Togliatti_2_40" vType="passenger2a" vaporized=""/>
    <tripinfo id="Pepoli_11_7" depart="14.00" departLane="210_1" departPos="0.00" departSpeed="0.00" departDelay="2.00" arrival="187.00" arrivalLane="114_2" arrivalPos="693.37" arrivalSpeed="13.58" duration="173.00" routeLength="1737.41" waitSteps="31" timeLoss="47.09" rerouteNo="0" devices="tripinfo_Pepoli_11_7" vType="passenger1" vaporized=""/>
    <tripinfo id="Pepoli_11_6" depart="10.00" departLane="210_1" departPos="0.00" departSpeed="0.00" departDelay="0.00" arrival="187.00" arrivalLane="114_1" arrivalPos="693.37" arrivalSpeed="13.46" duration="177.00" routeLength="1737.41" waitSteps="32" timeLoss="51.27" rerouteNo="0" devices="tripinfo_Pepoli_11_6" vType="passenger4" vaporized=""/>
    <tripinfo id="Silvani_7_20" depart="47.00" departLane="203[0]_1" departPos="0.00" departSpeed="0.00" departDelay="0.00" arrival="188.00" arrivalLane="209_1" arrivalPos="395.74" arrivalSpeed="13.01" duration="141.00" routeLength="1449.64" waitSteps="20" timeLoss="35.96" rerouteNo="0" devices="tripinfo_Silvani_7_20" vType="passenger2a" vaporized=""/>
    <tripinfo id="Silvani_7_10" depart="23.00" departLane="203[0]_1" departPos="0.00" departSpeed="0.00" departDelay="0.00" arrival="188.00" arrivalLane="209_0" arrivalPos="395.74" arrivalSpeed="13.25" duration="165.00" routeLength="1449.64" waitSteps="41" timeLoss="59.84" rerouteNo="0" devices="tripinfo_Silvani_7_10" vType="passenger5" vaporized=""/>