<?xml version="1.0" encoding="UTF-8"?>

<!-- generated on qui 26 out 2017 09:40:38 -03 by SUMO gui Version 0.31.0
<?xml version="1.0" encoding="UTF-8"?>

<configuration xmlns:xsi="http://www.w3.org/2001/XMLSchema-instance" xsi:noNamespaceSchemaLocation="http://sumo.dlr.de/xsd/sumoConfiguration.xsd">

    <input>
        <net-file value="/home/oria/mestrado/macc/simulators/Bologna_small-0.21.0/acosta/acosta_buslanes.net.xml"/>
        <route-files value="/home/oria/mestrado/macc/simulators/Bologna_small-0.21.0/acosta/acosta.rou.xml,/home/oria/mestrado/macc/simulators/Bologna_small-0.21.0/acosta/acosta_busses.rou.xml"/>
        <additional-files value="/home/oria/mestrado/macc/simulators/Bologna_small-0.21.0/acosta/acosta_vtypes.add.xml,/home/oria/mestrado/macc/simulators/Bologna_small-0.21.0/acosta/acosta_detectors.add.xml,/home/oria/mestrado/macc/simulators/Bologna_small-0.21.0/acosta/acosta_bus_stops.add.xml,/home/oria/mestrado/macc/simulators/Bologna_small-0.21.0/acosta/acosta_tls.add.xml"/>
    </input>

    <output>
        <tripinfo-output value="/home/oria/mestrado/macc/simulators/Bologna_small-0.21.0/acosta/tripinfos.xml"/>
    </output>

    <report>
        <log value="/home/oria/mestrado/macc/simulators/Bologna_small-0.21.0/acosta/sumo_log.txt"/>
        <no-step-log value="true"/>
    </report>

    <gui_only>
        <gui-settings-file value="/home/oria/mestrado/macc/simulators/Bologna_small-0.21.0/acosta/settings.gui.xml"/>
    </gui_only>

</configuration>
-->

<tripinfos xmlns:xsi="http://www.w3.org/2001/XMLSchema-instance" xsi:noNamespaceSchemaLocation="http://sumo.dlr.de/xsd/tripinfo_file.xsd">
    <tripinfo id="Pepoli_8_16" depart="27.00" departLane="210_0" departPos="0.00" departSpeed="0.00" departDelay="0.00" arrival="85.00" arrivalLane="134b_0" arrivalPos="158.70" arrivalSpeed="13.56" duration="58.00" routeLength="693.93" waitSteps="0" timeLoss="7.33" rerouteNo="0" devices="tripinfo_Pepoli_8_16" vType="passenger2b" speedFactor="1.00" vaporized=""/>
    <tripinfo id="Silvani_11_0" depart="0.00" departLane="203[0]_0" departPos="0.00" departSpeed="0.00" departDelay="0.00" arrival="88.00" arrivalLane="114_0" arrivalPos="693.37" arrivalSpeed="13.42" duration="88.00" routeLength="1114.20" waitSteps="0" timeLoss="7.06" rerouteNo="0" devices="tripinfo_Silvani_11_0" vType="passenger2a" speedFactor="1.00" vaporized=""/>
    <tripinfo id="Silvani_11_1" depart="2.00" departLane="203[0]_0" departPos="0.00" departSpeed="0.00" departDelay="0.00" arrival="90.00" arrivalLane="114_0" arrivalPos="693.37" arrivalSpeed="13.40" duration="88.00" routeLength="1114.20" waitSteps="0" timeLoss="7.47" rerouteNo="0" devices="tripinfo_Silvani_11_1" vType="passenger2b" speedFactor="1.00" vaporized=""/>
    <tripinfo id="Pepoli_8_21" depart="37.00" departLane="210_0" departPos="0.00" departSpeed="0.00" departDelay="1.00" arrival="94.00" arrivalLane="134b_0" arrivalPos="158.70" arrivalSpeed="13.45" duration="57.00" routeLength="693.93" waitSteps="0" timeLoss="6.90" rerouteNo="0" devices="tripinfo_Pepoli_8_21" vType="passenger2b" speedFactor="1.00" vaporized=""/>
    <tripinfo id="Pepoli_8_23" depart="39.00" departLane="210_0" departPos="0.00" departSpeed="0.00" departDelay="0.00" arrival="97.00" arrivalLane="134b_0" arrivalPos="158.70" arrivalSpeed="12.62" duration="58.00" routeLength="693.93" waitSteps="0" timeLoss="7.51" rerouteNo="0" devices="tripinfo_Pepoli_8_23" vType="passenger2a" speedFactor="1.00" vaporized=""/>
    <tripinfo id="Togliatti_2_8" depart="11.00" departLane="85_0" departPos="0.00" departSpeed="0.00" departDelay="0.00" arrival="103.00" arrivalLane="77[1][1]_0" arrivalPos="464.92" arrivalSpeed="13.07" duration="92.00" routeLength="1149.15" waitSteps="0" timeLoss="8.77" rerouteNo="0" devices="tripinfo_Togliatti_2_8" vType="passenger1" speedFactor="1.00" vaporized=""/>
    <tripinfo id="Costa_1_4" depart="15.00" departLane="78[0]_0" departPos="0.00" departSpeed="0.00" departDelay="5.00" arrival="111.00" arrivalLane="86_1" arrivalPos="323.60" arrivalSpeed="13.45" duration="96.00" routeLength="1191.41" waitSteps="0" timeLoss="10.03" rerouteNo="0" devices="tripinfo_Costa_1_4" vType="passenger3" speedFactor="1.00" vaporized=""/>
    <tripinfo id="Costa_1_2" depart="9.00" departLane="78[0]_0" departPos="0.00" departSpeed="0.00" departDelay="4.00" arrival="113.00" arrivalLane="86_0" arrivalPos="323.60" arrivalSpeed="12.98" duration="104.00" routeLength="1191.41" waitSteps="5" timeLoss="17.67" rerouteNo="0" devices="tripinfo_Costa_1_2" vType="passenger1" speedFactor="1.00" vaporized=""/>
    <tripinfo id="Costa_12_0" depart="0.00" departLane="78[0]_0" departPos="0.00" departSpeed="0.00" departDelay="0.00" arrival="114.00" arrivalLane="136_0" arrivalPos="188.65" arrivalSpeed="12.84" duration="114.00" routeLength="1417.42" waitSteps="0" timeLoss="11.49" rerouteNo="0" devices="tripinfo_Costa_12_0" vType="passenger3" speedFactor="1.00" vaporized=""/>
    <tripinfo id="Costa_12_1" depart="6.00" departLane="78[0]_0" departPos="0.00" departSpeed="0.00" departDelay="4.00" arrival="122.00" arrivalLane="136_0" arrivalPos="188.65" arrivalSpeed="12.88" duration="116.00" routeLength="1417.42" waitSteps="0" timeLoss="13.80" rerouteNo="0" devices="tripinfo_Costa_12_1" vType="passenger1" speedFactor="1.00" vaporized=""/>
    <tripinfo id="Audinot_7_0" depart="0.00" departLane="131_0" departPos="0.00" departSpeed="0.00" departDelay="0.00" arrival="123.00" arrivalLane="209_0" arrivalPos="395.74" arrivalSpeed="13.38" duration="123.00" routeLength="875.20" waitSteps="46" timeLoss="59.39" rerouteNo="0" devices="tripinfo_Audinot_7_0" vType="passenger4" speedFactor="1.00" vaporized=""/>
    <tripinfo id="Costa_3_21" depart="55.00" departLane="78[0]_0" departPos="0.00" departSpeed="0.00" departDelay="1.00" arrival="125.00" arrivalLane="14_0" arrivalPos="90.27" arrivalSpeed="12.65" duration="70.00" routeLength="853.79" waitSteps="0" timeLoss="7.63" rerouteNo="0" devices="tripinfo_Costa_3_21" vType="passenger3" speedFactor="1.00" vaporized=""/>
    <tripinfo id="Costa_12_3" depart="12.00" departLane="78[0]_0" departPos="0.00" departSpeed="0.00" departDelay="5.00" arrival="130.00" arrivalLane="136_0" arrivalPos="188.65" arrivalSpeed="12.99" duration="118.00" routeLength="1417.42" waitSteps="0" timeLoss="14.99" rerouteNo="0" devices="tripinfo_Costa_12_3" vType="passenger1" speedFactor="1.00" vaporized=""/>
    <tripinfo id="Costa_12_7" depart="20.00" departLane="78[0]_0" departPos="0.00" departSpeed="0.00" departDelay="2.00" arrival="135.00" arrivalLane="136_0" arrivalPos="188.65" arrivalSpeed="13.31" duration="115.00" routeLength="1417.42" waitSteps="0" timeLoss="12.15" rerouteNo="0" devices="tripinfo_Costa_12_7" vType="passenger1" speedFactor="1.00" vaporized=""/>
    <tripinfo id="Costa_12_9" depart="26.00" departLane="78[0]_0" departPos="0.00" departSpeed="0.00" departDelay="3.00" arrival="142.00" arrivalLane="136_0" arrivalPos="188.65" arrivalSpeed="13.83" duration="116.00" routeLength="1417.42" waitSteps="0" timeLoss="13.10" rerouteNo="0" devices="tripinfo_Costa_12_9" vType="passenger4" speedFactor="1.00" vaporized=""/>
    <tripinfo id="Turati_3_2" depart="69.00" departLane="195_0" departPos="0.00" departSpeed="0.00" departDelay="0.00" arrival="147.00" arrivalLane="14_0" arrivalPos="90.27" arrivalSpeed="13.40" duration="78.00" routeLength="952.99" waitSteps="0" timeLoss="9.25" rerouteNo="0" devices="tripinfo_Turati_3_2" vType="ignoring5" speedFactor="1.00" vaporized=""/>
    <tripinfo id="Pepoli_8_25" depart="42.00" departLane="210_0" departPos="0.00" departSpeed="0.00" departDelay="0.00" arrival="152.00" arrivalLane="134b_0" arrivalPos="158.70" arrivalSpeed="13.42" duration="110.00" routeLength="693.93" waitSteps="46" timeLoss="59.77" rerouteNo="0" devices="tripinfo_Pepoli_8_25" vType="passenger4" speedFactor="1.00" vaporized=""/>
    <tripinfo id="Pepoli_8_28" depart="48.00" departLane="210_0" departPos="0.00" departSpeed="0.00" departDelay="0.00" arrival="154.00" arrivalLane="134b_0" arrivalPos="158.70" arrivalSpeed="13.14" duration="106.00" routeLength="693.93" waitSteps="41" timeLoss="55.55" rerouteNo="0" devices="tripinfo_Pepoli_8_28" vType="passenger2b" speedFactor="1.00" vaporized=""/>
    <tripinfo id="Togliatti_12_15" depart="21.00" departLane="85_2" departPos="0.00" departSpeed="0.00" departDelay="0.00" arrival="155.00" arrivalLane="136_0" arrivalPos="188.65" arrivalSpeed="12.90" duration="134.00" routeLength="912.57" waitSteps="52" timeLoss="67.64" rerouteNo="0" devices="tripinfo_Togliatti_12_15" vType="passenger2b" speedFactor="1.00" vaporized=""/>
    <tripinfo id="Pepoli_3_0" depart="0.00" departLane="210_2" departPos="0.00" departSpeed="0.00" departDelay="0.00" arrival="156.00" arrivalLane="14_0" arrivalPos="90.27" arrivalSpeed="13.15" duration="156.00" routeLength="1950.21" waitSteps="0" timeLoss="15.03" rerouteNo="0" devices="tripinfo_Pepoli_3_0" vType="ignoring1" speedFactor="1.00" vaporized=""/>
    <tripinfo id="Togliatti_12_24" depart="34.00" departLane="85_2" departPos="0.00" departSpeed="0.00" departDelay="0.00" arrival="157.00" arrivalLane="136_0" arrivalPos="188.65" arrivalSpeed="13.87" duration="123.00" routeLength="912.57" waitSteps="41" timeLoss="56.44" rerouteNo="0" devices="tripinfo_Togliatti_12_24" vType="passenger3" speedFactor="1.00" vaporized=""/>
    <tripinfo id="bus_81_0" depart="4.00" departLane="55_0" departPos="0.00" departSpeed="0.00" departDelay="4.00" arrival="158.00" arrivalLane="114_0" arrivalPos="693.37" arrivalSpeed="13.52" duration="154.00" routeLength="1058.61" waitSteps="12" timeLoss="35.38" rerouteNo="0" devices="tripinfo_bus_81_0" vType="bus" speedFactor="1.00" vaporized=""/>
    <tripinfo id="Pepoli_3_2" depart="3.00" departLane="210_2" departPos="0.00" departSpeed="0.00" departDelay="0.00" arrival="158.00" arrivalLane="14_0" arrivalPos="90.27" arrivalSpeed="13.38" duration="155.00" routeLength="1950.21" waitSteps="0" timeLoss="13.88" rerouteNo="0" devices="tripinfo_Pepoli_3_2" vType="ignoring1" speedFactor="1.00" vaporized=""/>
    <tripinfo id="bus_13_0" depart="0.00" departLane="55_0" departPos="0.00" departSpeed="0.00" departDelay="0.00" arrival="159.00" arrivalLane="114_1" arrivalPos="693.37" arrivalSpeed="13.16" duration="159.00" routeLength="1058.61" waitSteps="15" timeLoss="39.85" rerouteNo="0" devices="tripinfo_bus_13_0" vType="bus" speedFactor="1.00" vaporized=""/>
    <tripinfo id="Togliatti_12_48" depart="68.00" departLane="85_2" departPos="0.00" departSpeed="0.00" departDelay="0.00" arrival="160.00" arrivalLane="136_0" arrivalPos="188.65" arrivalSpeed="13.76" duration="92.00" routeLength="912.57" waitSteps="9" timeLoss="25.72" rerouteNo="0" devices="tripinfo_Togliatti_12_48" vType="passenger2a" speedFactor="1.00" vaporized=""/>
    <tripinfo id="Silvani_11_8" depart="18.00" departLane="203[0]_0" departPos="0.00" departSpeed="0.00" departDelay="0.00" arrival="162.00" arrivalLane="114_1" arrivalPos="693.37" arrivalSpeed="13.27" duration="144.00" routeLength="1114.20" waitSteps="48" timeLoss="62.93" rerouteNo="0" devices="tripinfo_Silvani_11_8" vType="passenger1" speedFactor="1.00" vaporized=""/>
    <tripinfo id="Togliatti_12_59" depart="84.00" departLane="85_2" departPos="0.00" departSpeed="0.00" departDelay="0.00" arrival="162.00" arrivalLane="136_0" arrivalPos="188.65" arrivalSpeed="13.16" duration="78.00" routeLength="912.57" waitSteps="0" timeLoss="11.89" rerouteNo="0" devices="tripinfo_Togliatti_12_59" vType="passenger2b" speedFactor="1.00" vaporized=""/>
    <tripinfo id="Pepoli_8_44" depart="75.00" departLane="210_0" departPos="0.00" departSpeed="0.00" departDelay="0.00" arrival="162.00" arrivalLane="134b_0" arrivalPos="158.70" arrivalSpeed="13.67" duration="87.00" routeLength="693.93" waitSteps="22" timeLoss="36.26" rerouteNo="0" devices="tripinfo_Pepoli_8_44" vType="passenger3" speedFactor="1.00" vaporized=""/>
    <tripinfo id="Silvani_11_9" depart="21.00" departLane="203[0]_0" departPos="0.00" departSpeed="0.00" departDelay="0.00" arrival="163.00" arrivalLane="114_0" arrivalPos="693.37" arrivalSpeed="13.78" duration="142.00" routeLength="1114.20" waitSteps="46" timeLoss="61.58" rerouteNo="0" devices="tripinfo_Silvani_11_9" vType="passenger3" speedFactor="1.00" vaporized=""/>
    <tripinfo id="Pepoli_8_48" depart="82.00" departLane="210_0" departPos="0.00" departSpeed="0.00" departDelay="0.00" arrival="163.00" arrivalLane="134b_0" arrivalPos="158.70" arrivalSpeed="13.20" duration="81.00" routeLength="693.93" waitSteps="15" timeLoss="30.96" rerouteNo="0" devices="tripinfo_Pepoli_8_48" vType="passenger3" speedFactor="1.00" vaporized=""/>
    <tripinfo id="Pepoli_10_4" depart="6.00" departLane="210_0" departPos="0.00" departSpeed="0.00" departDelay="0.00" arrival="164.00" arrivalLane="204[1][1]_0" arrivalPos="436.47" arrivalSpeed="13.82" duration="158.00" routeLength="1470.69" waitSteps="36" timeLoss="51.61" rerouteNo="0" devices="tripinfo_Pepoli_10_4" vType="passenger4" speedFactor="1.00" vaporized=""/>
    <tripinfo id="Silvani_11_13" depart="30.00" departLane="203[0]_0" departPos="0.00" departSpeed="0.00" departDelay="0.00" arrival="166.00" arrivalLane="114_0" arrivalPos="693.37" arrivalSpeed="13.06" duration="136.00" routeLength="1114.20" waitSteps="41" timeLoss="55.65" rerouteNo="0" devices="tripinfo_Silvani_11_13" vType="passenger1" speedFactor="1.00" vaporized=""/>
    <tripinfo id="Pepoli_8_51" depart="88.00" departLane="210_0" departPos="0.00" departSpeed="0.00" departDelay="1.00" arrival="166.00" arrivalLane="134b_0" arrivalPos="158.70" arrivalSpeed="13.62" duration="78.00" routeLength="693.93" waitSteps="11" timeLoss="27.35" rerouteNo="0" devices="tripinfo_Pepoli_8_51" vType="passenger3" speedFactor="1.00" vaporized=""/>
    <tripinfo id="Pepoli_10_10" depart="17.00" departLane="210_0" departPos="0.00" departSpeed="0.00" departDelay="0.00" arrival="167.00" arrivalLane="204[1][1]_0" arrivalPos="436.47" arrivalSpeed="13.16" duration="150.00" routeLength="1470.69" waitSteps="26" timeLoss="43.22" rerouteNo="0" devices="tripinfo_Pepoli_10_10" vType="passenger1" speedFactor="1.00" vaporized=""/>
    <tripinfo id="Pepoli_10_11" depart="20.00" departLane="210_0" departPos="0.00" departSpeed="0.00" departDelay="2.00" arrival="168.00" arrivalLane="204[1][1]_0" arrivalPos="436.47" arrivalSpeed="12.93" duration="148.00" routeLength="1470.69" waitSteps="24" timeLoss="42.01" rerouteNo="0" devices="tripinfo_Pepoli_10_11" vType="passenger1" speedFactor="1.00" vaporized=""/>
    <tripinfo id="Silvani_11_14" depart="33.00" departLane="203[0]_0" departPos="0.00" departSpeed="0.00" departDelay="0.00" arrival="168.00" arrivalLane="114_0" arrivalPos="693.37" arrivalSpeed="13.44" duration="135.00" routeLength="1114.20" waitSteps="40" timeLoss="54.51" rerouteNo="0" devices="tripinfo_Silvani_11_14" vType="passenger1" speedFactor="1.00" vaporized=""/>
    <tripinfo id="XXI_Aprile_2_12" depart="42.00" departLane="13_0" departPos="0.00" departSpeed="0.00" departDelay="0.00" arrival="168.00" arrivalLane="77[1][1]_0" arrivalPos="464.92" arrivalSpeed="13.48" duration="126.00" routeLength="979.71" waitSteps="34" timeLoss="54.50" rerouteNo="0" devices="tripinfo_XXI_Aprile_2_12" vType="passenger3" speedFactor="1.00" vaporized=""/>
    <tripinfo id="Vittorio_Veneto_1_4" depart="18.00" departLane="224[0]_0" departPos="0.00" departSpeed="0.00" departDelay="0.00" arrival="170.00" arrivalLane="86_0" arrivalPos="323.60" arrivalSpeed="13.03" duration="152.00" routeLength="1167.08" waitSteps="53" timeLoss="66.99" rerouteNo="0" devices="tripinfo_Vittorio_Veneto_1_4" vType="passenger1" speedFactor="1.00" vaporized=""/>
    <tripinfo id="Silvani_11_16" depart="37.00" departLane="203[0]_0" departPos="0.00" departSpeed="0.00" departDelay="0.00" arrival="170.00" arrivalLane="114_1" arrivalPos="693.37" arrivalSpeed="12.44" duration="133.00" routeLength="1114.20" waitSteps="37" timeLoss="52.27" rerouteNo="0" devices="tripinfo_Silvani_11_16" vType="passenger2a" speedFactor="1.00" vaporized=""/>
    <tripinfo id="Pepoli_10_18" depart="30.00" departLane="210_0" departPos="0.00" departSpeed="0.00" departDelay="0.00" arrival="170.00" arrivalLane="204[1][1]_0" arrivalPos="436.47" arrivalSpeed="13.13" duration="140.00" routeLength="1470.69" waitSteps="16" timeLoss="33.71" rerouteNo="0" devices="tripinfo_Pepoli_10_18" vType="passenger1" speedFactor="1.00" vaporized=""/>
    <tripinfo id="Pepoli_10_20" depart="34.00" departLane="210_0" departPos="0.00" departSpeed="0.00" departDelay="0.00" arrival="171.00" arrivalLane="204[1][1]_1" arrivalPos="436.47" arrivalSpeed="12.99" duration="137.00" routeLength="1470.69" waitSteps="13" timeLoss="30.84" rerouteNo="0" devices="tripinfo_Pepoli_10_20" vType="passenger1" speedFactor="1.00" vaporized=""/>
    <tripinfo id="bus_91_0" depart="8.00" departLane="55_0" departPos="0.00" departSpeed="0.00" departDelay="8.00" arrival="171.00" arrivalLane="114_0" arrivalPos="693.37" arrivalSpeed="12.87" duration="163.00" routeLength="1058.61" waitSteps="20" timeLoss="44.10" rerouteNo="0" devices="tripinfo_bus_91_0" vType="bus" speedFactor="1.00" vaporized=""/>
    <tripinfo id="Pepoli_8_62" depart="106.00" departLane="210_0" departPos="0.00" departSpeed="0.00" departDelay="0.00" arrival="171.00" arrivalLane="134b_0" arrivalPos="158.70" arrivalSpeed="13.05" duration="65.00" routeLength="693.93" waitSteps="0" timeLoss="14.81" rerouteNo="0" devices="tripinfo_Pepoli_8_62" vType="passenger1" speedFactor="1.00" vaporized=""/>
    <tripinfo id="Silvani_11_17" depart="40.00" departLane="203[0]_0" departPos="0.00" departSpeed="0.00" departDelay="0.00" arrival="172.00" arrivalLane="114_1" arrivalPos="693.37" arrivalSpeed="13.61" duration="132.00" routeLength="1114.20" waitSteps="35" timeLoss="51.05" rerouteNo="0" devices="tripinfo_Silvani_11_17" vType="passenger1" speedFactor="1.00" vaporized=""/>
    <tripinfo id="Pepoli_10_19" depart="32.00" departLane="210_1" departPos="0.00" departSpeed="0.00" departDelay="0.00" arrival="172.00" arrivalLane="204[1][1]_0" arrivalPos="436.47" arrivalSpeed="13.53" duration="140.00" routeLength="1470.69" waitSteps="14" timeLoss="33.32" rerouteNo="0" devices="tripinfo_Pepoli_10_19" vType="passenger2b" speedFactor="1.00" vaporized=""/>
    <tripinfo id="Turati_10_0" depart="0.00" departLane="195_0" departPos="0.00" departSpeed="0.00" departDelay="0.00" arrival="173.00" arrivalLane="204[1][1]_1" arrivalPos="436.47" arrivalSpeed="13.32" duration="173.00" routeLength="2048.37" waitSteps="0" timeLoss="24.98" rerouteNo="0" devices="tripinfo_Turati_10_0" vType="passenger1" speedFactor="1.00" vaporized=""/>
    <tripinfo id="Silvani_11_23" depart="54.00" departLane="203[0]_0" departPos="0.00" departSpeed="0.00" departDelay="0.00" arrival="173.00" arrivalLane="114_1" arrivalPos="693.37" arrivalSpeed="13.74" duration="119.00" routeLength="1114.20" waitSteps="24" timeLoss="38.65" rerouteNo="0" devices="tripinfo_Silvani_11_23" vType="passenger4" speedFactor="1.00" vaporized=""/>
    <tripinfo id="Silvani_11_12" depart="28.00" departLane="203[0]_0" departPos="0.00" departSpeed="0.00" departDelay="0.00" arrival="173.00" arrivalLane="114_0" arrivalPos="693.37" arrivalSpeed="13.59" duration="145.00" routeLength="1114.20" waitSteps="45" timeLoss="64.23" rerouteNo="0" devices="tripinfo_Silvani_11_12" vType="passenger2b" speedFactor="1.00" vaporized=""/>
    <tripinfo id="Pepoli_10_22" depart="37.00" departLane="210_1" departPos="0.00" departSpeed="0.00" departDelay="0.00" arrival="174.00" arrivalLane="204[1][1]_0" arrivalPos="436.47" arrivalSpeed="13.25" duration="137.00" routeLength="1470.69" waitSteps="12" timeLoss="30.14" rerouteNo="0" devices="tripinfo_Pepoli_10_22" vType="passenger2a" speedFactor="1.00" vaporized=""/>
    <tripinfo id="Silvani_11_24" depart="57.00" departLane="203[0]_0" departPos="0.00" departSpeed="0.00" departDelay="1.00" arrival="175.00" arrivalLane="114_0" arrivalPos="693.37" arrivalSpeed="13.55" duration="118.00" routeLength="1114.20" waitSteps="22" timeLoss="37.34" rerouteNo="0" devices="tripinfo_Silvani_11_24" vType="passenger1" speedFactor="1.00" vaporized=""/>
    <tripinfo id="Togliatti_71_0" depart="0.00" departLane="85_1" departPos="0.00" departSpeed="0.00" departDelay="0.00" arrival="176.00" arrivalLane="209_0" arrivalPos="395.74" arrivalSpeed="13.33" duration="176.00" routeLength="2033.15" waitSteps="12" timeLoss="28.85" rerouteNo="0" devices="tripinfo_Togliatti_71_0" vType="passenger2b" speedFactor="1.00" vaporized=""/>
    <tripinfo id="Audinot_10_2" depart="42.00" departLane="131_0" departPos="0.00" departSpeed="0.00" departDelay="0.00" arrival="177.00" arrivalLane="204[1][1]_0" arrivalPos="436.47" arrivalSpeed="13.66" duration="135.00" routeLength="1658.47" waitSteps="0" timeLoss="15.07" rerouteNo="0" devices="tripinfo_Audinot_10_2" vType="passenger2b" speedFactor="1.00" vaporized=""/>
    <tripinfo id="Silvani_11_27" depart="63.00" departLane="203[0]_0" departPos="0.00" departSpeed="0.00" departDelay="0.00" arrival="177.00" arrivalLane="114_0" arrivalPos="693.37" arrivalSpeed="13.42" duration="114.00" routeLength="1114.20" waitSteps="17" timeLoss="33.02" rerouteNo="0" devices="tripinfo_Silvani_11_27" vType="passenger1" speedFactor="1.00" vaporized=""/>
    <tripinfo id="Togliatti_2_32" depart="46.00" departLane="85_0" departPos="0.00" departSpeed="0.00" departDelay="1.00" arrival="178.00" arrivalLane="77[1][1]_0" arrivalPos="464.92" arrivalSpeed="12.92" duration="132.00" routeLength="1149.15" waitSteps="31" timeLoss="48.98" rerouteNo="0" devices="tripinfo_Togliatti_2_32" vType="passenger5" speedFactor="1.00" vaporized=""/>
    <tripinfo id="Costa_3_33" depart="88.00" departLane="78[0]_0" departPos="0.00" departSpeed="0.00" departDelay="2.00" arrival="178.00" arrivalLane="14_0" arrivalPos="90.27" arrivalSpeed="12.85" duration="90.00" routeLength="853.79" waitSteps="14" timeLoss="27.93" rerouteNo="0" devices="tripinfo_Costa_3_33" vType="passenger2b" speedFactor="1.00" vaporized=""/>
    <tripinfo id="Silvani_11_32" depart="75.00" departLane="203[0]_0" departPos="0.00" departSpeed="0.00" departDelay="0.00" arrival="179.00" arrivalLane="114_0" arrivalPos="693.37" arrivalSpeed="12.87" duration="104.00" routeLength="1114.20" waitSteps="8" timeLoss="22.94" rerouteNo="0" devices="tripinfo_Silvani_11_32" vType="passenger1" speedFactor="1.00" vaporized=""/>
    <tripinfo id="Silvani_7_5" depart="11.00" departLane="203[0]_0" departPos="0.00" departSpeed="0.00" departDelay="0.00" arrival="180.00" arrivalLane="209_1" arrivalPos="395.74" arrivalSpeed="13.82" duration="169.00" routeLength="1457.18" waitSteps="50" timeLoss="64.21" rerouteNo="0" devices="tripinfo_Silvani_7_5" vType="passenger2b" speedFactor="1.00" vaporized=""/>
    <tripinfo id="Silvani_11_33" depart="77.00" departLane="203[0]_0" departPos="0.00" departSpeed="0.00" departDelay="0.00" arrival="180.00" arrivalLane="114_0" arrivalPos="693.37" arrivalSpeed="13.15" duration="103.00" routeLength="1114.20" waitSteps="5" timeLoss="22.61" rerouteNo="0" devices="tripinfo_Silvani_11_33" vType="passenger1" speedFactor="1.00" vaporized=""/>
    <tripinfo id="Pepoli_8_70" depart="121.00" departLane="210_0" departPos="0.00" departSpeed="0.00" departDelay="1.00" arrival="180.00" arrivalLane="134b_0" arrivalPos="158.70" arrivalSpeed="12.45" duration="59.00" routeLength="693.93" waitSteps="0" timeLoss="8.57" rerouteNo="0" devices="tripinfo_Pepoli_8_70" vType="passenger2a" speedFactor="1.00" vaporized=""/>
    <tripinfo id="Togliatti_3_18" depart="25.00" departLane="85_0" departPos="0.00" departSpeed="0.00" departDelay="0.00" arrival="180.00" arrivalLane="14_0" arrivalPos="90.27" arrivalSpeed="12.90" duration="155.00" routeLength="1114.31" waitSteps="52" timeLoss="74.27" rerouteNo="0" devices="tripinfo_Togliatti_3_18" vType="passenger1" speedFactor="1.00" vaporized=""/>
    <tripinfo id="Silvani_7_3" depart="7.00" departLane="203[0]_0" departPos="0.00" departSpeed="0.00" departDelay="0.00" arrival="181.00" arrivalLane="209_0" arrivalPos="395.74" arrivalSpeed="13.27" duration="174.00" routeLength="1457.18" waitSteps="55" timeLoss="68.89" rerouteNo="0" devices="tripinfo_Silvani_7_3" vType="passenger2b" speedFactor="1.00" vaporized=""/>
    <tripinfo id="Silvani_7_11" depart="25.00" departLane="203[0]_0" departPos="0.00" departSpeed="0.00" departDelay="0.00" arrival="182.00" arrivalLane="209_1" arrivalPos="395.74" arrivalSpeed="12.98" duration="157.00" routeLength="1457.18" waitSteps="38" timeLoss="52.03" rerouteNo="0" devices="tripinfo_Silvani_7_11" vType="passenger4" speedFactor="1.00" vaporized=""/>
    <tripinfo id="Silvani_11_34" depart="80.00" departLane="203[0]_0" departPos="0.00" departSpeed="0.00" departDelay="0.00" arrival="182.00" arrivalLane="114_0" arrivalPos="693.37" arrivalSpeed="13.63" duration="102.00" routeLength="1114.20" waitSteps="3" timeLoss="21.26" rerouteNo="0" devices="tripinfo_Silvani_11_34" vType="passenger4" speedFactor="1.00" vaporized=""/>
    <tripinfo id="Togliatti_3_31" depart="44.00" departLane="85_0" departPos="0.00" departSpeed="0.00" departDelay="0.00" arrival="182.00" arrivalLane="14_0" arrivalPos="90.27" arrivalSpeed="13.21" duration="138.00" routeLength="1114.31" waitSteps="36" timeLoss="56.96" rerouteNo="0" devices="tripinfo_Togliatti_3_31" vType="passenger2b" speedFactor="1.00" vaporized=""/>
    <tripinfo id="Costa_3_38" depart="102.00" departLane="78[0]_0" departPos="0.00" departSpeed="0.00" departDelay="3.00" arrival="183.00" arrivalLane="14_0" arrivalPos="90.27" arrivalSpeed="13.35" duration="81.00" routeLength="853.79" waitSteps="1" timeLoss="19.28" rerouteNo="0" devices="tripinfo_Costa_3_38" vType="passenger1" speedFactor="1.00" vaporized=""/>
    <tripinfo id="Silvani_7_4" depart="9.00" departLane="203[0]_1" departPos="0.00" departSpeed="0.00" departDelay="0.00" arrival="184.00" arrivalLane="209_0" arrivalPos="395.74" arrivalSpeed="13.50" duration="175.00" routeLength="1457.18" waitSteps="54" timeLoss="69.25" rerouteNo="0" devices="tripinfo_Silvani_7_4" vType="passenger2b" speedFactor="1.00" vaporized=""/>
    <tripinfo id="Pepoli_11_3" depart="5.00" departLane="210_1" departPos="0.00" departSpeed="0.00" departDelay="0.00" arrival="184.00" arrivalLane="114_1" arrivalPos="693.37" arrivalSpeed="13.40" duration="179.00" routeLength="1737.41" waitSteps="39" timeLoss="53.58" rerouteNo="0" devices="tripinfo_Pepoli_11_3" vType="passenger1" speedFactor="1.00" vaporized=""/>
    <tripinfo id="Pepoli_11_5" depart="8.00" departLane="210_1" departPos="0.00" departSpeed="0.00" departDelay="0.00" arrival="184.00" arrivalLane="114_2" arrivalPos="693.37" arrivalSpeed="13.42" duration="176.00" routeLength="1737.41" waitSteps="34" timeLoss="50.77" rerouteNo="0" devices="tripinfo_Pepoli_11_5" vType="passenger2a" speedFactor="1.00" vaporized=""/>
    <tripinfo id="Silvani_11_39" depart="92.00" departLane="203[0]_0" departPos="0.00" departSpeed="0.00" departDelay="0.00" arrival="184.00" arrivalLane="114_0" arrivalPos="693.37" arrivalSpeed="13.19" duration="92.00" routeLength="1114.20" waitSteps="0" timeLoss="10.98" rerouteNo="0" devices="tripinfo_Silvani_11_39" vType="passenger5" speedFactor="1.00" vaporized=""/>
    <tripinfo id="Silvani_7_2" depart="4.00" departLane="203[0]_1" departPos="0.00" departSpeed="0.00" departDelay="0.00" arrival="185.00" arrivalLane="209_0" arrivalPos="395.74" arrivalSpeed="13.49" duration="181.00" routeLength="1457.18" waitSteps="59" timeLoss="75.22" rerouteNo="0" devices="tripinfo_Silvani_7_2" vType="passenger2a" speedFactor="1.00" vaporized=""/>
    <tripinfo id="Togliatti_2_40" depart="58.00" departLane="85_0" departPos="0.00" departSpeed="0.00" departDelay="2.00" arrival="185.00" arrivalLane="77[1][1]_0" arrivalPos="464.92" arrivalSpeed="12.49" duration="127.00" routeLength="1149.15" waitSteps="26" timeLoss="44.15" rerouteNo="0" devices="tripinfo_Togliatti_2_40" vType="passenger2a" speedFactor="1.00" vaporized=""/>
    <tripinfo id="Togliatti_3_39" depart="55.00" departLane="85_0" departPos="0.00" departSpeed="0.00" departDelay="0.00" arrival="185.00" arrivalLane="14_0" arrivalPos="90.27" arrivalSpeed="13.60" duration="130.00" routeLength="1114.31" waitSteps="29" timeLoss="49.11" rerouteNo="0" devices="tripinfo_Togliatti_3_39" vType="passenger2b" speedFactor="1.00" vaporized=""/>
    <tripinfo id="Silvani_7_7" depart="16.00" departLane="203[0]_1" departPos="0.00" departSpeed="0.00" departDelay="0.00" arrival="186.00" arrivalLane="209_0" arrivalPos="395.74" arrivalSpeed="13.86" duration="170.00" routeLength="1457.18" waitSteps="48" timeLoss="64.87" rerouteNo="0" devices="tripinfo_Silvani_7_7" vType="passenger1" speedFactor="1.00" vaporized=""/>
    <tripinfo id="Pepoli_11_6" depart="10.00" departLane="210_1" departPos="0.00" departSpeed="0.00" departDelay="0.00" arrival="186.00" arrivalLane="114_1" arrivalPos="693.37" arrivalSpeed="12.74" duration="176.00" routeLength="1737.41" waitSteps="33" timeLoss="50.31" rerouteNo="0" devices="tripinfo_Pepoli_11_6" vType="passenger4" speedFactor="1.00" vaporized=""/>
    <tripinfo id="Pepoli_11_7" depart="14.00" departLane="210_1" departPos="0.00" departSpeed="0.00" departDelay="2.00" arrival="186.00" arrivalLane="114_2" arrivalPos="693.37" arrivalSpeed="12.85" duration="172.00" routeLength="1737.41" waitSteps="29" timeLoss="46.43" rerouteNo="0" devices="tripinfo_Pepoli_11_7" vType="passenger1" speedFactor="1.00" vaporized=""/>
    <tripinfo id="Silvani_11_41" depart="96.00" departLane="203[0]_0" departPos="0.00" departSpeed="0.00" departDelay="0.00" arrival="186.00" arrivalLane="114_0" arrivalPos="693.37" arrivalSpeed="13.22" duration="90.00" routeLength="1114.20" waitSteps="0" timeLoss="8.80" rerouteNo="0" devices="tripinfo_Silvani_11_41" vType="passenger1" speedFactor="1.00" vaporized=""/>